570
 energy: -968.017323213064 gnorm: 0.000824453972 xtb: 6.4.1 (060166e)
O        95.51247859459453  105.37704298653512   96.06388454910781
H        96.00679686589346  105.45905508246481   96.92257112226356
H        95.71490490361541  104.46332646392787   95.77319347515983
O       102.41427108154242  103.26652005154851  106.95952255746194
H       103.31541541798887  103.56822993448496  106.75552715053747
H       102.09639078532754  102.84508305447741  106.12716912285661
O        97.02625010240654  104.39901794722844  103.71051516956396
H        96.94260898950350  103.43912421500177  103.94782408659482
H        97.42440943342376  104.41866554252840  102.81529421839581
O       107.33668803427416   94.75846606501993   96.37591654401749
H       108.23132642782805   94.50621860539229   96.60617193279400
H       106.88231547622806   94.98505921828833   97.24230971968615
O        99.50937004235122  103.51678779593890  104.73297412400449
H        99.18204203674226  103.39660068047304  105.63699879486170
H       100.36494288857641  103.03433472164005  104.69183009759429
O        96.18089291722121  102.80809918244555   95.48320602963520
H        95.83876328355871  101.93909749281320   95.79295277051806
H        97.17098488124014  102.72145423466928   95.47356198160787
O       101.41143611325600  100.73307228615096   90.57981399258209
H       101.50502679482669   99.78763026698580   90.34245041408246
H       100.60994118829845  100.74984545575616   91.15296713407763
O        92.26124933227027  106.58828756866542  100.17477641323293
H        92.63666285248260  105.96099889918442  100.84526210452256
H        92.78114415920416  107.39167024305873  100.25182307840328
O       104.92905204817015  104.60325109094775   93.45739522254385
H       104.86969692850062  105.23792767834705   92.74341787553594
H       104.01335992724584  104.22075230034601   93.55733534060258
O        96.99734203433199   94.58960661884296   94.38660859667229
H        97.25723621302309   95.53549138822116   94.68296162225978
H        96.05912271021553   94.63019247904712   94.20611092113315
O        93.70992019944840  100.99801647590770  103.94050747782836
H        93.82584650641370  101.72884470951320  104.57019444081520
H        94.21935938484081  101.26873220706229  103.11245593199384
O        99.76252771673836  104.04464252325580   93.27963964903124
H       100.72878645332605  103.90765456128678   93.31822370689589
H        99.60416824264365  104.95983492196360   93.58982799255966
O       102.97432911267209  102.39120745625335   96.10571884849644
H       103.68267702060557  102.07900425773947   95.51389038475152
H       102.75265255245289  101.55054021576717   96.59513286187570
O       101.57480742892912   97.14767894947636   92.66002834650658
H       100.90950055676473   97.65364902520798   93.22362538522798
H       101.39445688981523   96.20212405370846   92.83686952281680
O        98.11729179236707  103.07696469556579   98.39174273840057
H        99.00528075469701  103.43390700539936   98.55613660539487
H        97.82098524189645  102.72540672262636   99.27329902018924
O       103.01331721440432  100.16084684110170  106.12809276932002
H       103.20345663067764   99.48410247395435  105.41451734268711
H       102.58084002518262  100.90229696469957  105.64778217894741
O       100.21833498346886  104.35708902280810   99.54561898609917
H       100.51555662048766  104.32657206453231  100.49034197352623
H       100.16004526435006  105.29424799904240   99.33371338953411
O       102.29244892037144   96.63622126521182  107.77217366519687
H       102.89909500324639   96.29706058175550  107.08582958130582
H       101.71076611829466   97.29390805944010  107.27633719758512
O        91.24517564630848   96.35138362435572  100.49648970183162
H        91.04741442348994   97.30557893460629  100.43806105897018
H        92.17417415530684   96.35777683857749  100.85582958908508
O        95.61248090433530  100.98182814099376  107.17812889693073
H        95.39412008599372  100.45904091291391  107.96460294565233
H        96.26745356373372  100.39831476581796  106.69672264610902
O       106.06437217730257   97.85528879855634  104.09487379891840
H       105.07498468755846   98.01326274352483  104.20372618945306
H       106.42399182392172   98.75666631536859  104.05599405663857
O        92.44384720892410   97.78769484509607  106.03682327838040
H        92.02476152324429   97.77363205306145  105.15702331252523
H        93.31577632373167   98.21040422199999  105.83283357481257
O       104.69370784572932   94.14563072621725  100.50252736389960
H       104.06781488479925   93.53843128718346  100.08297914041194
H       105.26629325974382   94.49096468123152   99.79272080037126
O       100.57668500517025   99.71627084668808   96.34537936797153
H       101.35209328939047   99.12928836949423   96.36436044928907
H       100.61826936931398  100.27627989720170   97.16503809340657
O       101.30122452626613  100.61986963656592  101.21941648806224
H       100.44760859688427  100.21336124057677  100.90013193334374
H       101.01079889073357  101.48018091980279  101.54618074652355
O        98.58569987746311   94.44765669290828   92.30165388436046
H        98.02338251495506   94.43237747317897   93.12667672547754
H        98.26649700060878   93.73301720599159   91.75110539255419
O        99.46092631878351   97.80979433484131   98.39980713461277
H       100.35716920220676   97.88905322437365   98.79625060120637
H        99.28689502163944   98.70209632995279   98.05601400431007
O       101.04242475882748   99.68980294306378  103.69113915505154
H       101.22173492942177   99.89865937494677  102.74167710729688
H       100.47352532567230   98.90478230441794  103.67157207298136
O        99.02191895412092   99.56665140493321  100.49704570037262
H        98.37853730095821   99.91463198844012  101.13588943939129
H        98.80340755505570   99.92398352096450   99.62597173920217
O        98.45228155552157  107.10662815243974  102.19168843625519
H        98.77684426930996  106.73464841074987  103.04050988675573
H        99.24250805694589  107.54757272579123  101.81221497742271
O        93.19030318384405  104.70078652190253   98.30395070856262
H        92.78788025665968  105.41803824946815   98.81545905198421
H        92.52966927565561  104.40409997100419   97.65709772362707
O       101.03906619933946   94.20463913770638   95.87503197291136
H       100.61175180236646   95.06714569233743   96.15726165195476
H       100.55992398519471   93.49061369086685   96.32602427906191
O        98.90445786733375  106.85297574980721   99.09246342173225
H        98.63501716726904  107.77292336982995   99.16854633811585
H        98.09158964794312  106.34003260255378   98.84933752353902
O        97.39180366945307   99.96455620123483  102.66512578797659
H        97.09018378585701  100.66737950067200  103.25611863525010
H        98.00032625832799   99.38471647602623  103.17664800711803
O        98.75470012138705  103.18521062954494  107.31222930795234
H        99.31581601550886  103.85489341744407  107.73440043681997
H        97.83476089122631  103.32600948219745  107.59547955806238
O        95.55340242892542   99.18513829878127  109.24360663027674
H        96.53082944804819   99.23701179639301  109.37208451229370
H        95.42465509847878   98.31792140039995  108.81893751451764
O        93.85223106011526   99.36889236504319  100.63272486970051
H        94.29083746405459   98.78638885670173  101.29394663789938
H        94.12538952601771   99.03010874888331   99.75276551155507
O       101.69233370181895   92.31152819924485  103.51183942837331
H       100.76995474840474   92.00135289710757  103.47411046424493
H       101.69417870159221   93.12304262310028  102.92361790136626
O        97.82014918490265   99.92124170316440   95.22026373076419
H        96.86775450532598  100.03066587355043   95.32055276586323
H        98.19164096618418  100.80242079698394   95.04609984895342
O       103.62216534894060   95.35389007020434  105.71963031783793
H       103.27505543140367   94.44819525344612  105.80693108643572
H       104.58895706508127   95.28642893629861  105.67183670883657
O        94.53369772561288   97.54319124546052   95.31310486763191
H        94.83515765635572   96.78958084644782   95.86258475264337
H        94.93208497781791   98.33745062186982   95.72018385631202
O        91.28577962249956   99.11117897240558  100.41638672057591
H        92.29512539170358   99.19127658738289  100.51515741723523
H        90.95921054610868   99.65069446354215  101.14611556003459
O       103.39723696639831  105.54491432481186  101.37992534697551
H       102.99986128659602  105.97103143745193  102.16196835029207
H       104.09638091636594  106.13596765037222  101.06629255016922
O        95.65883915768677   95.68953993691643   96.93438052614309
H        96.19512285489321   96.54081851428495   97.09118200815645
H        95.30289645681643   95.50501668822001   97.82171574417976
O       104.89688102292753  101.11783634828836   94.73774161388981
H       105.03108651307738  100.23913070213247   95.17638924434252
H       104.37210790018952  100.94623407352405   93.94370642742713
O        96.75515852317378   95.99250974231184  102.52591183481742
H        96.09753566279964   96.70897906293834  102.39193815398754
H        97.58457011848276   96.33384887446194  102.09287045693834
O        97.71667931636823   96.97975398250851   94.98569579909638
H        97.85666001418630   97.36124569082898   94.11151090371696
H        98.63215369648415   96.88420900965401   95.36747449305700
O        96.14285080997777  103.43571225120783  107.93609010099500
H        95.90099429778806  102.53253439723129  107.58553335736121
H        95.82529353918471  103.46453493282270  108.83785706657052
O        96.51969805388158   94.10595329588799  106.26098749408378
H        95.58381035612845   93.90823499054747  106.31602585848221
H        96.56483123561674   94.97829455589371  105.77657478559971
O        96.56795101025847  107.12137743641317   94.40043178769993
H        96.06812705222133  107.01310710521246   93.58977916328656
H        96.15947430449253  106.48036213223875   95.05139751207867
O        95.48002321397185  102.59287087437798   92.95115963140397
H        95.73098307886859  102.71824076221203   93.91103166940398
H        94.95141458098006  101.78278821469804   92.94116873246094
O       100.68513843159374  104.89589186620293  108.18341114229571
H       101.34853827565797  104.36031387122519  107.67651051367380
H       101.01338450598990  104.93826263591957  109.08178120697190
O       103.09280995233921   96.37143772188375  100.16272841311627
H       103.59016951090118   95.65135052363266  100.56438581891335
H       102.52964230429806   96.84214368825890  100.84954918444228
O       106.29742877674477  100.51370887159841  103.62688553252468
H       105.41801145938658  100.46480991643983  103.12050219033794
H       106.88135742906437  101.04372030473407  103.08182006790740
O        97.80111491721607   97.15876111498640   92.19492071058623
H        98.15432506625747   97.61868100717210   91.42156281271224
H        98.13429308048369   96.24713954379126   92.14954490075843
O       103.42473147934260   99.13620456356824  108.59369704686694
H       103.05307011290894   98.23892513861200  108.56143692852247
H       103.33540144441560   99.46689154591425  107.67158123598423
O        92.12231266006155   98.69158556660663   94.86188344387874
H        92.92498748902047   98.13988556377696   95.00583554576032
H        91.76482789416957   98.80908483394299   95.75393797293840
O        99.26695553090245  106.49691592639641   94.31372712740031
H        99.54345498778277  106.40101044265234   95.25636583688471
H        98.33123820731015  106.76247550373823   94.34633728171698
O        91.32124286630565  100.68463191470686  102.78658400317482
H        91.14290982387962  101.57010230989208  102.43899422869464
H        92.20018654172267  100.78041027339933  103.24102701358747
O        91.11854312565551  103.26231614532847  101.65965796331345
H        91.93476944156494  103.80492209070222  101.79554860806748
H        90.41175055885853  103.88086277244909  101.47618621771257
O       101.20792391751624   94.52990544723647   93.25558257685913
H       100.31645204387078   94.40699930080167   92.89210860829125
H       101.10528107807713   94.38261031590706   94.23394346966995
O        96.76355748924362  101.92046461425201  104.50536761532133
H        97.61683934792926  101.69851605470733  104.93040516202072
H        96.09265507860859  101.92306012898507  105.19040027981441
O       102.50717865869271  103.51664307437535   93.61820224745861
H       102.42255060331907  103.13958804666208   94.52397783090859
H       102.68087358806382  102.72893383507528   93.07300038904103
O        93.04211654805154  102.42435685859421   99.78246933813868
H        93.16079595824958  103.28999120886502   99.33939975107779
H        92.19865163553553  102.46188554111572  100.24252959555511
O        98.31740301152075  100.36238173165054   97.82203702049851
H        98.44439035858251  101.32437836419861   97.86236372050264
H        98.24358996751138  100.12913557656316   96.87850228787113
O       105.84959771013402  105.15623540270794   96.06494103363231
H       105.55444322818200  104.96780757500585   95.16123119881694
H       105.62276908205411  104.33254418155664   96.58689522308296
O       105.06234781077583  103.78802553635062  106.41528370299744
H       105.23622022460195  102.80907493996297  106.24069724575594
H       105.54789505278156  103.99948068844503  107.21283730080008
O        99.26309006653041   95.33923536605391  105.12694778476249
H        98.45315488523637   95.79031287946395  105.40157694022631
H        99.63347880931079   94.91225397071385  105.91300940936662
O       102.97660819976518  102.76353788057507  102.40421852297419
H       102.32698890485166  103.45698523054321  102.16567035660702
H       103.86118708260317  103.14501698340663  102.31205689912865
O       104.21627494191959   96.82018342027438   97.83868951126576
H       103.93185143295258   96.01142769922075   97.36944296405481
H       103.73184342502434   96.80120511425240   98.70127276895151
O       105.91133027712222  105.25448004118054  104.29576343099707
H       105.55610572621885  104.71317231498479  105.03761228884754
H       106.83576120658380  105.41653381966185  104.49142374675063
O       104.33710318968369   98.83043457840749  100.23876771482945
H       103.43222955986806   98.61138418949983   99.87868195360754
H       104.67188574377566   98.01255059270053  100.62470664773565
O       107.01210190805405  101.38707156797842   97.42044689305621
H       106.67946873379663  100.54857445698548   97.85164584258617
H       107.22401199632378  101.16742394675667   96.51160843208056
O       104.39051839097912  107.59178811528921  104.80057031916814
H       104.92488818812269  106.81609067815634  104.55257105951864
H       103.54759542597499  107.46210832128507  104.32226479173701
O        98.95724588774289   96.99545789121083  101.29932795579522
H        98.79780925429266   97.85420306208263  100.83442558298677
H        98.96393405165728   96.31808005111353  100.60592632139441
O       104.67882250071702   92.27747011455942   97.03785185711408
H       104.24384974371627   93.17502545001682   96.96546746575437
H       105.20715578958040   92.23018329130393   96.22490123877348
O        95.35566737253990  102.67602710158179   98.21818188633964
H        94.78626941024429  103.27423945318877   97.73452230046321
H        96.25511301764941  102.78854717203681   97.86816270856707
O       106.29089346324480   95.51652794461903   98.65381961165967
H       105.52671470980162   96.11105883182238   98.33801829585401
H       106.92772800645572   96.11810317328903   99.05491316269499
O        95.41902913443347  104.32462419091719  100.34533259123450
H        95.35390506861806  103.55626712086547   99.73060719458265
H        96.31702664831725  104.28078051394371  100.75243714023470
O       105.91194879722444   96.87971508100530  101.64738507350326
H       106.05697054269302   97.34956003821118  102.50399038635446
H       106.29067063831219   95.99057426735554  101.77219275165115
O       103.92671218754336  106.08309191316413   97.80211320924401
H       103.52256730687067  105.25250681713339   98.19224512176024
H       104.64860439657758  105.79687768860293   97.21878952853224
O       105.01647288677451  103.19478268734500   97.58241036892477
H       104.16787372088221  102.91871255621474   97.15239896484645
H       105.63819219757356  102.45054327819524   97.51174842696769
O       103.12406556899202  100.13585088111779   97.42534439718430
H       103.81059947658549   99.64170623255724   96.97160573804462
H       103.50706891938829  100.53479299481785   98.23767701052238
O       102.40623729333353   92.82418216175971   99.48374384075505
H       102.64250195631993   92.12063139454112   98.87244131207530
H       101.48215232279375   92.62527948535617   99.74160202037471
O        95.80060866935808   96.69572865561287  107.94241678251322
H        96.48661722406821   96.93468631764827  107.29331159662757
H        96.23523971562074   96.06464209597192  108.52404484886036
O       105.45787630213192  101.25757136892567  106.07163610725884
H       104.56505710045104  100.82890935557757  106.13016810943031
H       105.79278964789557  101.01956567611445  105.17784164825015
O       105.57461394531276  103.50970361605171  102.14581536808186
H       105.68515921979461  104.20480334338768  102.81134752925350
H       105.57541814227541  103.95959020435278  101.26372375226104
O        97.29176191361010  101.94207341268552  100.64616655535652
H        96.54388655712114  102.15413896157388  101.22034062783501
H        96.93755908022105  101.18153542914466  100.12530540818429
O       100.66215350351942   94.49610233503002  107.34961873658884
H       101.23375253349863   95.25351988968571  107.61750977518196
H       101.25486492959280   93.85500984408428  106.92290324190272
O        98.86124215559119   98.57250316918616   90.04645500465060
H        98.55383173428852   98.76469292283485   89.15996672644120
H        99.80297322601162   98.32565911127786   89.98202502128110
O       107.80304056187549   97.64794838728970   99.96093998201059
H       108.34438380749705   98.29508339228968  100.43255098185992
H       107.07358492304748   97.42898818122347  100.60333009972292
O        94.26539480834315   98.14503754714480   98.26809334138622
H        95.16598436932647   98.31148072482195   97.91134454215749
H        94.28229719648213   97.24566922256400   98.61014174894221
O        96.68691447453574   97.77012500558226  100.05631982270341
H        96.36615377480371   97.94039810661877  100.94937864328215
H        96.44180690324808   98.57794192177892   99.56805921705218
O       101.54304960943013   98.03510077323293   90.18217327828955
H       102.44953677138783   97.90258113909449   89.86163931684877
H       101.54617149777272   97.68758719949456   91.11827368682243
O        98.87817180173998   98.05342164272699  103.82055752209975
H        98.94621821014566   97.52911245615195  103.00353224777277
H        98.23117617870695   97.62185329084637  104.38471171368028
O       104.01693039357561  100.26155949553119  102.42782666958976
H       103.55020102910920  101.10525834283217  102.30032079797090
H       104.11110761760057   99.84236991782630  101.53912268065622
O       100.69352471299307  108.34406701723857  101.41238187536121
H       100.98831161302277  107.69504108861274  100.69712178523582
H       100.66253516177372  109.20091434724242  100.97533570304969
O       100.81453802380560  104.27051159625928  102.07212137412047
H       100.20622363196357  103.48118843454671  102.23878537607796
H       100.50993364102685  104.98005709671622  102.63590886651234
O       108.26714488469605  103.16621110031899   99.05487865049244
H       107.81146009303220  102.51318559157626   98.47805945729488
H       109.04120315927264  103.45853700047681   98.57326648084275
O        96.82159002639783   94.00706343460807  100.75999161181996
H        97.65543012811307   94.33375139669317  100.35850856811248
H        96.77880229139491   94.52664771307283  101.59647532512913
O       106.85366479383428  102.54884425369865   93.76993528248836
H       106.15938376953000  101.98452833028631   94.21353019713420
H       106.36272155386051  103.35539857541258   93.55227361657586
O        95.13851137243969   97.69789687906612   92.69678972350525
H        96.08213882655437   97.51480396365716   92.52738421077444
H        95.00364140193399   97.51094739243381   93.65521057079114
O       105.85073061327115  104.55548101337034   99.73874810328904
H       106.77003962662705  104.33877628631400   99.54877629910902
H       105.34591480070704  104.07339186943621   99.04626864506338
O        98.01571543553123   92.03251736253095   95.21110054479563
H        98.66536642822302   92.01824365136534   95.93462255538546
H        97.71311085102560   92.95774052303824   95.17314257405981
O        95.44665308420804   98.31148313153136  102.47141637272735
H        95.00759027313586   98.33746587656393  103.33260577074687
H        96.17522993682338   99.01727699231725  102.53025471549002
O        99.02734016377694   94.36768371498783  102.57953803029858
H        99.04625040848902   94.72790381036687  103.48231188265463
H        99.93481565986781   94.47842373989535  102.23564750831272
O       103.56249732685968   94.59481235468330   96.49960840551427
H       102.58276728731212   94.46508256817199   96.41668526803505
H       103.86026269292054   94.66649580886694   95.57698662573553
O        90.73919515969169   95.41980538572888  103.03137521806980
H        90.96529533969482   96.31866696656837  103.34189127856963
H        90.75255509861485   95.53093774975606  102.05820091678133
O       103.97131866156339   97.37798142731808   93.66170674402653
H       103.06294224916191   97.35840298366787   93.25708831500215
H       104.48008577426168   97.98000758686169   93.09994989378120
O        98.09593027549028   94.81218674965804  108.33286742184379
H        98.98852266381429   94.46959842080378  108.16978849231170
H        97.53853657916468   94.43528111206379  107.61351590980406
O        93.39239111291822   94.72184692965058  103.68203213406318
H        92.42765567602186   94.77079690536947  103.56702747771263
H        93.56452382810475   94.97512560742909  104.60473205154761
O       106.65034743929600   94.35857721242290  102.39267495459715
H       106.35523476515331   94.46436256679129  103.31106034311803
H       105.88328215589813   94.03655124931669  101.87862570249821
O        99.83074580043173  100.81443518764220  107.87916258089260
H        99.38889318667850  101.68129793808816  107.74773432186878
H       100.63767821755232  101.01293418892853  108.38663461070200
O       105.21636557812170   98.82310604436178   95.97884063200208
H       105.70156193167546   98.14758304641973   95.48560191502044
H       105.59392268575975   98.81883212441657   96.88790838885586
O       100.74251479884212  101.30257858891054   98.48922182279588
H       100.62259275636337  102.15358909520428   98.05318701820971
H       101.64910844101738  101.30063296529502   98.82007868901158
O        94.65114363726356  105.25729558932517  104.14861812144518
H        94.81424695936030  106.00375460548929  104.72734668790302
H        95.57841921642603  104.92992521059006  103.88075221108467
O       104.03517516059365   94.71299282041390   93.78876871343300
H       103.15296055117886   94.46094045285295   93.48059687525752
H       104.04322805956083   95.69916969920492   93.72717703425462
O       100.21021695569523  106.24269453511694   96.82721216851402
H       100.97991675380094  106.82973240274207   96.77565055505504
H        99.72943522366602  106.51078985104841   97.64598171160755
O        99.00879371360455   91.84737846126887  103.23393929297769
H        98.46103586223444   91.40964967697772  102.57482207685088
H        98.95311848995317   92.82556922119825  102.97323220142596
O        97.13772776558507   99.27590351315887  105.89289343677443
H        97.53495021053766   98.61015513288947  106.46521614079585
H        97.91148685345131   99.78790164590515  105.51299684973472
O        96.70059898842793   96.47290133537304  105.06310705850956
H        96.73902718486393   96.19371412393767  104.09861999872335
H        95.82890589695870   96.86374789770871  105.17701335742032
O        99.19371597674767  100.44401489617310   92.13582965613465
H        98.88890287497070   99.80126334660977   91.47957312700888
H        98.66299500596179  101.25777230006715   91.98534302760233
O        96.86599925132063  105.37633986340954   98.32627170537118
H        96.20373409390217  105.21703986298269   99.02892687347214
H        97.36700806997059  104.49934652296922   98.27696149050202
O       102.12370147554796  107.00244454613241  103.32099143600902
H       101.72963562528888  107.64745590611523  102.70679647267342
H       101.34677016463677  106.60761236064745  103.77760386077391
O        93.64907896058195   96.51890409724668  101.61962917612144
H        93.68412440750942   95.82320530411862  102.29496051507485
H        94.21804698712727   96.21300588996965  100.86694680673622
O        99.76456905948301   92.49879773338652   99.81175549022835
H        99.47140542264394   93.46457106213951   99.77446901768329
H        99.05747954902004   92.02477552541320  100.26466631300838
O       106.68736870213885   96.84971608828049   94.71707874904597
H       106.95177651323799   96.12600869558858   95.31582236292475
H       105.97385363559475   96.49159098003696   94.17737183294341
O        97.88261675565246  109.50175672934741   99.30630826765550
H        97.45542117821391  109.43075992145417  100.19005209508636
H        97.18412569342210  109.65870187454098   98.66687023722935
O        98.24503627851306   99.13680558537229  109.26541400503723
H        98.31101128855066   98.39084683029773  108.62552719620518
H        98.80067814662712   99.82832999785403  108.83533651903016
O       108.95255755439811   99.67717466605649  101.51568691276745
H       108.49383632601541  100.54194789851572  101.52503374869053
H       109.79095597222869   99.81478061385315  101.95676863878100
O       100.60108383998596  103.53348442163292   96.91282641069922
H       101.46928332201175  103.30320278108114   96.54973651803778
H       100.49983821878406  104.49545220112809   96.85560974384184
O       101.66974583180500  106.72986651250322   99.64720194615202
H       102.23187973313252  107.36558688916922   99.19775879048137
H       102.26468649344230  106.21661764312049  100.24187965573657
O       101.12319819855995  101.15945605479003   94.26695341723621
H       100.37645350468163  101.04041256965046   93.67649993616985
H       100.91336877869756  100.63221072701029   95.10006004093403
O        91.86116540439234   97.90809301372450  103.35860379944249
H        91.59841539229438   98.79940605062198  103.09506974081162
H        92.56787256014530   97.64175302916709  102.74055923198705
O       101.40880660852984   95.29826403608136   98.48741485620236
H       101.75880026395069   94.40491346264162   98.55743559458202
H       101.96652434787137   95.83709706379905   99.10234795400474
O       101.65417923714166   94.41143432397607  101.91265916913343
H       102.35320657164709   95.00838363080257  102.26200889159243
H       101.97565107536177   94.07074449980405  101.07256759480255
O       104.74630001757042  107.53082793041546   99.95400679333329
H       104.60099219654016  106.96021769064254   99.16298289075185
H       104.24412737044852  108.33435034752868   99.76704848361720
O        94.06340771393569  100.10780566880250   93.38378266354553
H        93.21723319921489   99.76985805005243   93.72087818733381
H        94.49434227137598   99.32001311520264   92.98945151196773
O       102.59357810827922   90.73274986379978   97.48492511350932
H       103.39086171746791   91.26040151063697   97.21420160968540
H       102.83938054575010   89.81048177843418   97.41721728699667
O        96.86788908852344  109.18981040203425  101.79431423223791
H        97.37638167263670  108.35635831293609  101.98578466410382
H        97.03875677695082  109.77370853264138  102.53509631023162
O        99.79541710411463  106.04384157810840  104.28527953891995
H        99.64895425138045  105.05423442730508  104.44913524375384
H        99.61193950114271  106.46301071125636  105.13965489859315
O        99.15037301766630  106.84097035923570  106.82069112798639
H        99.68947414617145  106.22090236980277  107.33952724737979
H        98.27640582245284  106.40283269662365  106.69559224894942
O        98.08832267762338   94.50656098337481   97.04046510863721
H        97.17251152349601   94.80776091949738   96.89276251778010
H        98.64614464761729   95.15986586445875   96.58772464348138
O        99.12182609534763  100.77170962553731  105.19263576726847
H        99.52569490935588  100.71779241918854  106.06644652942704
H        99.75419834258236  100.35565964135245  104.55750187553016
O        97.88951962392315  102.71877497150916   91.69154342242027
H        98.46486811342656  103.31585761807996   92.20415713764653
H        97.00662280240834  102.73312629188699   92.12044228449766
O        95.17067730433801   95.78293074213406   99.57853026925063
H        95.64606703488781   95.01473997375493   99.93973952361692
H        95.84235005427426   96.56789551162647   99.71501609558950
O       102.13710630593059  101.57183137332731  109.09804579808116
H       102.68005738463842  100.76617267438601  109.04952934854141
H       102.37724806756310  102.11657188429456  108.31525177091051
O       106.03321407457591   92.96202515532525   94.72066588666389
H       105.35454480326425   93.49041951918515   94.26476417432617
H       106.52054084496331   93.60918574006374   95.26971641207307
O       102.41795009537235   97.77091297999229   95.99830969696637
H       102.99691788366553   97.74404942164138   95.23082187243460